16
Properties=species:S:1:pos:R:3:forces:R:3 energy=-13494.200827811525 is_mlp_ts_acc_to_hessian=T is_mlp_ts_acc_to_forces=F max_forces=0.1689648022927148 pbc="F F F"
O        0.43963788      -0.08363758       2.31326536       0.07487494      -0.08564245      -0.02195203
O        2.62051697       0.70499664      -1.07299234      -0.01232434       0.00950679       0.01437916
O        2.74396116      -0.52321493       0.79388659       0.01929337      -0.00587237      -0.03138232
C        0.57816083       0.07541308      -0.07655928      -0.12933064       0.02792805      -0.07983547
C       -0.17878819      -0.08786524       1.09108501      -0.09706271       0.03821093       0.13292050
C       -0.07987909       0.19467856      -1.30469254       0.13037865       0.02973366      -0.00779164
C       -1.56881557      -0.15624181       1.01239944       0.05048877       0.02739054      -0.00064346
C       -1.46327614       0.11612816      -1.38189675       0.01263759      -0.00784115       0.00809741
C       -2.20659861      -0.06786022      -0.21829879      -0.03740847      -0.09627542      -0.01984906
C        2.06760708       0.04360412      -0.02989019       0.08967204       0.05152733       0.01701780
H        0.51333834       0.33519943      -2.20290364      -0.05123706      -0.01876242      -0.00420182
H       -2.13740053      -0.25773860       1.93305672       0.03253055       0.05382456      -0.01215679
H       -1.96042438       0.19872985      -2.34403396       0.00693609       0.00177937       0.00318188
H       -3.29100145      -0.12619431      -0.26687801      -0.01601397       0.00610998      -0.01379941
H        0.34406558      -0.94909252       2.72885893      -0.06101960      -0.00726815       0.02378879
H        3.57889612       0.58309537      -0.97440656      -0.01241524      -0.02434942      -0.00777360
16
Properties=species:S:1:pos:R:3:forces:R:3 energy=-13494.162553819717 is_mlp_ts_acc_to_hessian=T is_mlp_ts_acc_to_forces=F max_forces=0.1405391798000361 pbc="F F F"
O        0.66221127      -0.26485369       2.11817605       0.00312224      -0.00330380       0.08942155
O        2.63266044       1.11686354      -0.20060937       0.02664253       0.04459879      -0.00201421
O        2.74654836      -1.11978469      -0.29464144       0.06939769      -0.02249765      -0.02466955
C        0.58807348      -0.06022284      -0.22225604      -0.08888769       0.02690625       0.10548124
C       -0.09373060      -0.16294129       0.99232920      -0.03455329      -0.00033545       0.02716184
C       -0.13114604       0.05823388      -1.40587144       0.04975823       0.02430151      -0.02470052
C       -1.48636724      -0.15201103       1.01145709       0.05460148       0.00581702      -0.07306942
C       -1.52296302       0.06868653      -1.39335470      -0.03945121      -0.00852475      -0.01063502
C       -2.19433919      -0.03743795      -0.18058178      -0.03512073      -0.00624424      -0.00568223
C        2.08611180      -0.11287830      -0.23625965      -0.03967794      -0.03004468      -0.07517330
H        0.40696389       0.13930786      -2.34700431      -0.01036661      -0.00976538       0.00015518
H       -2.01500860      -0.23225277       1.95986346       0.01322769       0.00291922      -0.01831958
H       -2.07612618       0.15859648      -2.32327277       0.02006633      -0.00326624       0.00762932
H       -3.28083170      -0.03035996      -0.15536432       0.00912647       0.00025145      -0.00073096
H        0.08267777      -0.34778770       2.88577234      -0.00225147      -0.00586192       0.01546179
H        3.59526554       0.97884192      -0.20838232       0.00436611      -0.01495031      -0.01031652
16
Properties=species:S:1:pos:R:3:forces:R:3 energy=-13493.764846784827 is_mlp_ts_acc_to_hessian=T is_mlp_ts_acc_to_forces=F max_forces=0.16521363562929903 pbc="F F F"
O        0.46832833       0.39440459       2.27681707       0.00970106       0.00002578      -0.03472120
O        2.45615630       0.28413503      -1.43984156      -0.00482195       0.08383869       0.07103721
O        2.60703625       0.89021578       0.72278759       0.07666293       0.07210261       0.01271343
C        0.45478085       0.23709368      -0.10078201      -0.00786877       0.01289278      -0.10516489
C       -0.22395563       0.20814816       1.13285035      -0.06367230       0.03829797       0.11923385
C       -0.27974249       0.02946699      -1.27435442       0.03774359      -0.04532870      -0.08548152
C       -1.60166937      -0.03068788       1.15577349       0.00871077      -0.01872628      -0.03755206
C       -1.64668495      -0.19933434      -1.25003275       0.00014294      -0.01370037      -0.09823024
C       -2.30464739      -0.22979459      -0.02274171       0.05712843       0.01280010       0.06183076
C        1.92053387       0.49358688      -0.17673112      -0.01055324      -0.16081706      -0.03635999
H        0.25463778       0.06627563      -2.21776675      -0.05069369       0.01167610       0.11568367
H       -2.11982090      -0.05693311       2.11322190       0.01896036       0.00216466      -0.01214623
H       -2.19442891      -0.34941375      -2.17528986       0.00720649       0.01286095       0.00880596
H       -3.37592612      -0.40922221       0.02019993      -0.00714821       0.00109434       0.00850254
H       -0.14474122       0.33006842       3.02101339      -0.01732695      -0.00123787       0.01653098
H        2.71534151      -0.64309920      -1.52476306      -0.05417133      -0.00794382      -0.00468297
16
Properties=species:S:1:pos:R:3:forces:R:3 energy=-13494.26654922912 is_mlp_ts_acc_to_hessian=T is_mlp_ts_acc_to_forces=F max_forces=0.22549604026161907 pbc="F F F"
O        0.24667491      -0.45639061       2.35274806       0.04350494       0.01532625       0.00598299
O        2.76161200       0.12464595      -1.00606165      -0.05431687       0.00092758      -0.03498808
O        2.60277350      -0.29733724       1.18925018       0.10214011      -0.00326508      -0.03874362
C        0.57023602      -0.05599001      -0.01084265      -0.03271329      -0.02125233      -0.09980941
C       -0.24530681      -0.24448195       1.12703370      -0.16422677      -0.00221318      -0.00135732
C       -0.03322640       0.15025860      -1.26328658      -0.08657569       0.02873342      -0.04945970
C       -1.63962857      -0.20856251       0.98464707       0.02241689       0.00733082      -0.03296426
C       -1.40626783       0.18393830      -1.39558085       0.16889618       0.04501221      -0.14246559
C       -2.20473204       0.00340624      -0.25781770       0.06087089      -0.02490970       0.17562079
C        2.03258333      -0.07583012       0.13759628       0.07092030       0.02272159       0.15510058
H        0.60951055       0.26936203      -2.13015510      -0.05960996      -0.01872740       0.06006760
H       -2.24691285      -0.35521424       1.87238352       0.00985800      -0.00882414       0.00938368
H       -1.86219180       0.34208050      -2.36803693       0.00919676      -0.00638060      -0.00960102
H       -3.28778964       0.02478944      -0.35106810      -0.00069668      -0.00782061       0.00399015
H        1.22556879      -0.47606528       2.28222870      -0.07698750      -0.01176677       0.00190928
H        2.87709685       1.07139091      -1.16303795      -0.01267745      -0.01489198      -0.00266639
16
Properties=species:S:1:pos:R:3:forces:R:3 energy=-13494.150769326234 is_mlp_ts_acc_to_hessian=T is_mlp_ts_acc_to_forces=F max_forces=0.24291150363770966 pbc="F F F"
O        0.37051740      -0.25670032       2.25079027       0.07416029       0.01754041      -0.01285720
O        2.53021633       1.43485640       0.07562237       0.07290447       0.02101887       0.06694743
O        2.66304141      -0.78568047      -0.17940121      -0.02448988       0.01248288       0.03952065
C        0.49788720       0.16009233      -0.13636203      -0.14634466      -0.10150146       0.16518684
C       -0.21523061      -0.12698632       1.03018565      -0.09397542      -0.00655580      -0.07686090
C       -0.17842392       0.28117582      -1.35010259      -0.01960655      -0.00036994      -0.11950243
C       -1.59822868      -0.29488694       0.97154454       0.09245805       0.02050879      -0.02922419
C       -1.55468433       0.11241981      -1.41029360       0.01484213       0.01057181      -0.00326252
C       -2.25896109      -0.17623409      -0.24196466      -0.04170358      -0.01565385       0.00641155
C        1.97921115       0.37105639      -0.07463966      -0.12370118       0.01130494      -0.02707739
H        0.38644248       0.51019813      -2.25054840       0.00178792      -0.00016167      -0.00412219
H       -2.13058511      -0.51412297       1.89197177       0.01634164       0.01345017      -0.01540118
H       -2.07515462       0.20631428      -2.35862768       0.03072412       0.00510444      -0.00329985
H       -3.33760123      -0.30650465      -0.27563198       0.01145100       0.00817193       0.00774625
H        1.31610471      -0.06810481       2.19509739       0.07055328       0.00946925       0.04144616
H        3.60544891      -0.54689257      -0.13764020       0.06459782      -0.00538023      -0.03565096
16
Properties=species:S:1:pos:R:3:forces:R:3 energy=-13493.870308420797 is_mlp_ts_acc_to_hessian=T is_mlp_ts_acc_to_forces=F max_forces=0.27494941319749877 pbc="F F F"
O        0.43035500      -0.61051443       2.29337386       0.07009634       0.03190513      -0.10855779
O        2.81910836       0.70336902      -0.69932277       0.04567209       0.09142218      -0.07386880
O        2.76578224      -1.08885082       0.61036812      -0.04362513       0.04949081       0.00944525
C        0.65966230      -0.14632499      -0.06222308      -0.05907738       0.02549595      -0.10918283
C       -0.13744154      -0.32733240       1.07546891      -0.11995554      -0.09115517       0.22999692
C        0.04197681       0.09938208      -1.29258682       0.17510979      -0.01491332      -0.04139805
C       -1.52431278      -0.25759930       0.96770703       0.06474167       0.00682078       0.04413384
C       -1.34178748       0.15892403      -1.39972315      -0.03772859       0.09710848       0.05898535
C       -2.12478573      -0.01729034      -0.26267352      -0.05351925       0.03520525      -0.03280687
C        2.15774912      -0.24684629       0.01200107       0.04850731      -0.13792299       0.04728816
H        0.65551210       0.21096425      -2.18487099      -0.04243603      -0.00680230      -0.01645391
H       -2.11824678      -0.40835991       1.86473011       0.01768457      -0.02112671      -0.03582921
H       -1.80582451       0.33350104      -2.36609002       0.01175938      -0.04564577       0.00200786
H       -3.20836278       0.02610793      -0.33382796      -0.00577766      -0.00634442      -0.01842992
H        0.54113912       0.20611530       2.79581664      -0.04835832       0.01386915       0.02475540
H        2.18947654       1.36475483      -1.01814744      -0.02309404      -0.02740727       0.01991449
16
Properties=species:S:1:pos:R:3:forces:R:3 energy=-13493.925377900912 is_mlp_ts_acc_to_hessian=T is_mlp_ts_acc_to_forces=F max_forces=0.28370738176433524 pbc="F F F"
O        0.55017382      -0.36422819       2.25902891       0.02026906      -0.07951461      -0.08421766
O        2.68127823       0.86859131      -0.83129704       0.05316403       0.01615077      -0.06752266
O        2.73592091      -0.95368266       0.43833280      -0.03993601       0.00533748      -0.02602988
C        0.58110422      -0.06729435      -0.10890476      -0.04203725      -0.00112516      -0.09424990
C       -0.13164322      -0.29611737       1.07282805      -0.09470820       0.02043962       0.26665044
C       -0.11730974       0.11047991      -1.30567610       0.14911219       0.02198079      -0.06719697
C       -1.52281797      -0.35471964       1.04428506       0.08681431       0.01787145       0.00813165
C       -1.50485444       0.03776480      -1.33704615      -0.03016640       0.06449740       0.04226470
C       -2.20485806      -0.19992016      -0.15758674      -0.05273712      -0.10402280      -0.03488874
C        2.08235788      -0.10819101      -0.10792197       0.03063193       0.06179189       0.02176506
H        0.43669873       0.26609433      -2.22968411      -0.04778886      -0.02031716      -0.02040796
H       -2.05951118      -0.50577831       1.97721648       0.01992413       0.04908481      -0.01445323
H       -2.03596926       0.16056307      -2.27640700       0.01490785      -0.02721854       0.00818983
H       -3.29028726      -0.25356627      -0.16958000      -0.00737752       0.00661718      -0.01876712
H        0.46494764      -1.24961424       2.63347268      -0.04010997       0.00078112       0.02378310
H        2.02123690       1.52674413      -1.09053349      -0.01996229      -0.03235383       0.05694925
16
Properties=species:S:1:pos:R:3:forces:R:3 energy=-13493.853547330431 is_mlp_ts_acc_to_hessian=T is_mlp_ts_acc_to_forces=F max_forces=0.20162121370561825 pbc="F F F"
O        0.77784336      -0.24251587       2.01766114      -0.04644302      -0.00352828       0.03404238
O        2.59053773       0.83600326      -1.41687646       0.08763593      -0.06227522       0.01945272
O        2.84636362      -0.52572845       0.35941341      -0.03916767      -0.00353324       0.04913127
C        0.61736145       0.08715740      -0.33808398       0.01102412       0.01245695      -0.03161520
C        0.00581551      -0.15482151       0.90139508       0.03985274      -0.10294861       0.03424191
C       -0.18818133       0.25767798      -1.46670131      -0.10415518      -0.00159597       0.00331104
C       -1.38448427      -0.25613101       0.97816972       0.02518138       0.01982341       0.00158802
C       -1.56886678       0.14990114      -1.39477978       0.06705846       0.01316202      -0.04417527
C       -2.16243196      -0.11217505      -0.16252238       0.01985347      -0.00191832       0.02830338
C        2.09326104       0.21000815      -0.51765972      -0.04528451       0.16285364      -0.10990504
H        0.30868027       0.47248556      -2.40837550      -0.01984464      -0.01768518      -0.00355861
H       -1.85577415      -0.44187142       1.94216680       0.00958036       0.01452488      -0.01165638
H       -2.17698529       0.27135987      -2.28592633       0.00051668      -0.00358230       0.00485699
H       -3.24300722      -0.19772332      -0.08320927      -0.00057452      -0.00025277       0.00859950
H        0.20101999      -0.38173927       2.77994956      -0.01424131      -0.01051664       0.02361869
H        3.13884804       0.02811253       1.09537902       0.00900735      -0.01498410      -0.00623555
16
Properties=species:S:1:pos:R:3:forces:R:3 energy=-13493.932711571728 is_mlp_ts_acc_to_hessian=T is_mlp_ts_acc_to_forces=F max_forces=0.22840301931782567 pbc="F F F"
O        0.70215186      -0.28275087       2.14241311      -0.01115536       0.02551237       0.00499871
O        2.86048004       0.87386986      -0.23601316       0.13901339       0.05478417      -0.03592609
O        2.75871521      -1.34403673      -0.20417062       0.04855117      -0.03247976      -0.05372043
C        0.67911228      -0.14757966      -0.20401744      -0.04566991       0.17830038       0.13524486
C       -0.02871845      -0.18170459       1.00120588      -0.02010608      -0.08045007       0.12498140
C       -0.01640114      -0.02058786      -1.40354799       0.03307463       0.01998046      -0.04843545
C       -1.41903392      -0.09267242       0.99504240       0.01973638       0.02123369      -0.05452305
C       -1.40528545       0.06835048      -1.41530092       0.00141504       0.02254598      -0.05844927
C       -2.10048873       0.02909732      -0.21151247      -0.05178511      -0.02776725       0.02934361
C        2.18017795      -0.29378758      -0.20144310      -0.05998785       0.04162932       0.01758193
H        0.53956103      -0.00427122      -2.33824152      -0.01631752      -0.02878064      -0.06797253
H       -1.96642971      -0.11911406       1.93567099       0.01088727      -0.00047144      -0.02692879
H       -1.93837453       0.16163428      -2.35651611       0.01804721      -0.01275581       0.01362154
H       -3.18521148       0.09505073      -0.20521134       0.01548757      -0.00371333      -0.00000793
H        0.10828693      -0.34954251       2.90079836      -0.00310414      -0.01934964       0.03573314
H        2.23145811       1.60804484      -0.19915607      -0.07808644      -0.15821841      -0.01554220
16
Properties=species:S:1:pos:R:3:forces:R:3 energy=-13494.217713868753 is_mlp_ts_acc_to_hessian=T is_mlp_ts_acc_to_forces=F max_forces=0.21756454847850937 pbc="F F F"
O        0.60038158      -0.73779381       2.04475606       0.17333166       0.12688658       0.03450020
O        2.60974332       0.05202355      -1.47406114      -0.02509731       0.03586422       0.00060913
O        2.71213466       0.28641394       0.74417605      -0.01515187      -0.01537782       0.01712728
C        0.56130107      -0.01557195      -0.25515965      -0.14511633      -0.06206817       0.06165314
C       -0.10338951      -0.34277735       0.93386977      -0.15387988      -0.05293274      -0.06549907
C       -0.19213448       0.25969499      -1.40080150       0.06760845       0.03348657      -0.06730044
C       -1.49738556      -0.35846698       0.96535074       0.05344965      -0.02059826       0.01600143
C       -1.57803287       0.25282493      -1.36579291       0.07473852      -0.01116550       0.03701079
C       -2.23090790      -0.05054942      -0.17283417      -0.07292974       0.08269799       0.03092313
C        2.04246064       0.08714513      -0.40432042       0.13731271      -0.08756319      -0.02807828
H        0.34518615       0.48747795      -2.31662374      -0.02557531       0.01988968      -0.02269850
H       -1.99051616      -0.63870594       1.89232128       0.02541981      -0.04697250      -0.03276713
H       -2.14758966       0.48008696      -2.26223606       0.00874258      -0.00119990      -0.00621105
H       -3.31710805      -0.06421105      -0.13232453      -0.01631113      -0.00342938      -0.01106538
H        0.54084311      -0.05387311       2.72266474      -0.05743023      -0.00738482       0.04752846
H        3.64501365       0.35628217       0.48101549      -0.02911131       0.00986742      -0.01173401
16
Properties=species:S:1:pos:R:3:forces:R:3 energy=-13493.91467815701 is_mlp_ts_acc_to_hessian=T is_mlp_ts_acc_to_forces=F max_forces=0.2212748835360387 pbc="F F F"
O        0.49722132      -0.43209803       2.30918272       0.04257152       0.02203736      -0.11993824
O        2.92249976       0.36649698      -1.01836969       0.01707024      -0.00205908      -0.02689841
O        2.81466456      -0.12041201       1.12586533      -0.03910366       0.00097924       0.05977905
C        0.71768611       0.03658126      -0.02308753       0.01607084       0.04074079      -0.19677579
C       -0.08174717      -0.22493308       1.10978222       0.02547193      -0.04179561       0.21579361
C        0.06061884       0.24156584      -1.24371365       0.03779833      -0.01108664       0.07230353
C       -1.47561580      -0.26766568       0.98363780      -0.03440750       0.01343565      -0.08445537
C       -1.31893576       0.20083642      -1.36833640      -0.00064811       0.04049876      -0.15301144
C       -2.08976209      -0.05695445      -0.23864266       0.06133139      -0.01572978       0.09759760
C        2.21617994       0.08111487       0.10409601      -0.00703085      -0.01349510       0.04745322
H        0.62528072       0.43776522      -2.15295735      -0.03352152      -0.01055465       0.07763073
H       -2.07714127      -0.47144905       1.86816125       0.01489160       0.00121829      -0.01603961
H       -1.78576503       0.36596841      -2.33421819      -0.00651924      -0.00823662       0.02416563
H       -3.17351119      -0.09565292      -0.30900433      -0.00769433      -0.00136705      -0.00225862
H       -0.19818709      -0.59511867       2.96034244      -0.03344498      -0.00975639       0.03075705
H        2.34651415       0.53395489      -1.77273798      -0.05283669      -0.00482913      -0.02610332
